35
energy:  -740.795324  charge:  0.990000
C -2.60003520 -2.94609076 0.31790658 -0.2699999999999996
C -1.17483262 -2.38006740 0.14402592 -0.04999999999999982
C -1.04051416 -1.07256502 0.94057293 0.20000000000000018
O -1.03252676 -1.08955247 2.19057211 -0.33000000000000007
N -0.90992124 0.05780155 0.20522921 -0.23000000000000043
C -0.62719193 1.36775526 0.79996770 -0.03000000000000025
C 0.69595133 1.39181852 1.63781494 -0.16000000000000014
C 1.98867530 1.10937155 0.83126742 -0.17999999999999972
C 2.26190179 -0.39325684 0.49036693 -0.17999999999999972
C 2.53757639 -0.66418011 -0.99910357 -0.04999999999999982
N 1.28749183 -0.51035724 -1.86576007 -0.20999999999999996
C -0.44701355 2.34480176 -0.33931607 0.25
O -0.07852032 2.03890451 -1.48336978 -0.2599999999999998
O -0.64749347 3.61534667 0.07162504 -0.2400000000000002
N -0.76507382 -2.22864512 -1.29285967 -0.3200000000000003
H -2.66772639 -3.94269578 -0.12899598 0.09999999999999998
H -2.83406831 -3.01317165 1.38466074 0.10999999999999999
H -3.32724650 -2.28447775 -0.16606327 0.09999999999999998
H -0.46048409 -3.06723646 0.60701265 0.12
H -1.06682359 0.03476339 -0.79638523 0.21999999999999997
H -1.44911037 1.70478320 1.43792823 0.12
H 0.75624056 2.39422979 2.07496074 0.09999999999999998
H 0.57155328 0.66571318 2.44383578 0.10999999999999999
H 1.98663410 1.70488253 -0.08881278 0.08999999999999997
H 2.82826889 1.48107409 1.42880153 0.09999999999999998
H 3.15831748 -0.72241674 1.02838573 0.10999999999999999
H 1.44339681 -1.02756314 0.83429937 0.09999999999999998
H 3.29070846 0.02676459 -1.38611719 0.10999999999999999
H 2.88466818 -1.68947863 -1.14519099 0.10999999999999999
H 1.53167968 -0.65886048 -2.85715980 0.25
H 0.87243905 0.44338465 -1.77815103 0.21999999999999997
H -0.41036022 4.26867483 -0.64793771 0.31000000000000005
H -0.46236352 -3.14016860 -1.66082725 0.21999999999999997
H -1.56096668 -1.91937061 -1.87116256 0.20999999999999996
H 0.49210549 -1.24445113 -1.58973707 0.24
