44
energy:  -1011.057260  charge:  1.010000
C -3.76568599 -1.14386407 0.68682145 -0.16000000000000014
N -2.58227137 -1.64921850 -0.11717870 -0.019999999999999574
C -1.34744935 -2.13732989 0.68896044 0.019999999999999574
C -0.36509375 -2.49509568 -0.45323868 -0.16999999999999993
C -0.76395323 -1.56286806 -1.65450025 -0.16999999999999993
C -1.92120668 -0.68237231 -1.12925558 0.03000000000000025
C -1.42690646 0.57584531 -0.39723401 -0.16000000000000014
C -0.48480595 0.27999250 0.77894418 0.08000000000000007
C -0.85826665 -0.98503506 1.57270732 -0.1900000000000004
O 0.86870865 0.13774765 0.16214960 -0.21000000000000085
C 1.93957061 0.37481702 1.00605336 0.25
O 1.79242805 0.60328318 2.20925560 -0.2699999999999996
C 3.23414993 0.32178180 0.29360395 -0.11000000000000032
C 4.39256313 0.53063200 1.05448420 -0.07000000000000028
C 5.64231100 0.50342787 0.43937462 -0.09999999999999964
C 5.73515037 0.26908437 -0.93780663 -0.08000000000000007
C 4.57731829 0.06256329 -1.69723441 -0.09999999999999964
C 3.32383479 0.08921987 -1.08526800 -0.08000000000000007
C -2.56401045 1.48433952 0.05745987 0.2400000000000002
O -2.61629898 2.09197140 1.12530517 -0.2599999999999998
O -3.52388614 1.56403688 -0.90967778 -0.1999999999999993
C -4.66946668 2.47334412 -0.61942068 -0.08999999999999986
H -3.44457989 -0.36536433 1.37158869 0.12
H -4.17046706 -1.99105916 1.24089844 0.13
H -4.50097795 -0.75592635 -0.01702017 0.13
H -1.66270528 -2.99414987 1.28492240 0.13
H 0.65913435 -2.30973827 -0.13440194 0.12
H -0.47927445 -3.54488042 -0.73237108 0.10999999999999999
H 0.07256113 -0.94392861 -1.97436176 0.12
H -1.11814382 -2.15964979 -2.49841719 0.10999999999999999
H -2.66038047 -0.42030617 -1.88247813 0.13
H -0.85783249 1.15427483 -1.13755731 0.16000000000000003
H -0.45727388 1.13723319 1.45186796 0.10999999999999999
H 0.01796143 -1.32376852 2.13117374 0.13
H -1.62036543 -0.71802627 2.31137862 0.12
H 4.29209907 0.71344171 2.11748244 0.12
H 6.53944419 0.66446916 1.02498044 0.12
H 6.70660596 0.24913720 -1.41801175 0.12
H 4.65467491 -0.11665080 -2.76323016 0.12
H 2.42340272 -0.06362166 -1.66391651 0.12
H -4.30163732 3.48529391 -0.44188436 0.10999999999999999
H -5.21293080 2.11368500 0.25611696 0.10999999999999999
H -5.28696850 2.42626029 -1.51327507 0.12
H -2.92523075 -2.45568320 -0.66929010 0.27
