32
energy:  -701.688821  charge:  1.000000
C 1.60772835 -1.25245283 0.58531918 -0.17999999999999972
C 2.13068130 0.20408019 0.36673172 -0.17999999999999972
C 2.30881215 0.58288651 -1.11332202 -0.04999999999999982
N 0.96665348 0.74131558 -1.82360264 -0.21999999999999975
C 0.34888511 -1.38096845 1.47850589 -0.16000000000000014
C -1.01799439 -1.09431160 0.76988681 -0.03000000000000025
C -1.07881749 -1.98312261 -0.45353050 0.25
O -0.80007384 -1.62170632 -1.60542518 -0.2599999999999998
O -1.38712105 -3.25443945 -0.11271400 -0.2400000000000002
N -1.20106251 0.28694566 0.30346685 -0.23000000000000043
C -1.01784640 1.39558282 1.06900744 0.20000000000000018
O -0.62270622 1.37285392 2.25396865 -0.3100000000000005
C -1.27422907 2.69997880 0.30113942 -0.1200000000000001
N -0.16236452 2.91616290 -0.69650775 -0.2999999999999998
H 2.40277402 -1.83449404 1.06404967 0.09999999999999998
H 1.42626698 -1.72923845 -0.38466443 0.08999999999999997
H 1.48210810 0.92614571 0.86763850 0.09999999999999998
H 3.11963882 0.30114325 0.82929540 0.10999999999999999
H 2.88290554 -0.18153912 -1.64268271 0.10999999999999999
H 2.81692998 1.54532145 -1.20762735 0.10999999999999999
H 1.11485765 0.93253194 -2.82669437 0.25
H 0.37977518 -0.11523082 -1.74427437 0.20999999999999996
H 0.41071773 -0.70503731 2.33210362 0.10999999999999999
H 0.27291886 -2.41031533 1.84470719 0.09999999999999998
H -1.81924615 -1.38638133 1.45651160 0.12
H -1.32877219 -3.86377986 -0.90379962 0.30000000000000004
H -1.62451691 0.39604357 -0.61562135 0.22999999999999998
H -2.21331550 2.63351488 -0.25199357 0.12
H -1.33318425 3.51190453 1.02922699 0.10999999999999999
H 0.64877425 3.34545812 -0.23169155 0.20999999999999996
H -0.47393347 3.55129274 -1.44206735 0.20999999999999996
H 0.42476529 1.62235262 -1.36708327 0.24
