27
energy:  -591.305233  charge:  0.990000
C -4.48390039 0.04410801 0.00159537 -0.2699999999999996
C -2.98482613 0.05298027 0.30886373 0.03000000000000025
C -2.10445605 0.26825634 -0.94198959 -0.16000000000000014
C -0.63355285 0.42171101 -0.58713081 -0.04999999999999982
C 0.23199092 -0.69491615 -0.64961993 -0.15000000000000036
C 1.54557046 -0.51737253 -0.26240993 0.05999999999999961
C 2.02179836 0.71977098 0.16945570 0.05999999999999961
C 1.19918079 1.82664674 0.22923145 -0.1299999999999999
C -0.14352161 1.66054275 -0.15425491 -0.11000000000000032
O 3.38202008 0.63932814 0.49766446 -0.22000000000000064
C 3.78189582 -0.76907850 0.24597992 0.15000000000000036
O 2.56744198 -1.47495451 -0.24115586 -0.21000000000000085
N -2.60713681 -1.30593625 0.94705448 -0.11000000000000032
H -4.71697241 -0.69500839 -0.77203346 0.10999999999999999
H -4.77309098 1.03461311 -0.36241836 0.12
H -5.06641037 -0.17886831 0.90183219 0.10999999999999999
H -2.74095643 0.79656658 1.07051543 0.12
H -2.46788285 1.17924187 -1.42969328 0.12
H -2.25630458 -0.56994295 -1.63206551 0.10999999999999999
H -0.11757224 -1.65689865 -1.00405559 0.13
H 1.57800694 2.78577761 0.55555826 0.13
H -0.81113960 2.51404378 -0.11981751 0.12
H 4.11145242 -1.22299625 1.18007452 0.10999999999999999
H 4.54450933 -0.79220950 -0.53159690 0.09999999999999998
H -1.58190493 -1.36951677 1.07823758 0.27
H -2.90978092 -2.08725979 0.33973815 0.27
H -3.06166743 -1.41798811 1.86853183 0.28
